;;
;; Generated by CHARMM-GUI FF-Converter
;;
;; Correspondance:
;; jul316@lehigh.edu or wonpil@lehigh.edu
;;
;; GROMACS topology file for PROA
;;


[ moleculetype ]
; name	nrexcl
PROA	     3

[ atoms ]
; nr	type	resnr	residu	atom	cgnr	charge	mass
     1        NH3     20      ASP      N      1    -0.300000    14.0070   ; qtot -0.300
     2         HC     20      ASP    HT1      2     0.330000     1.0080   ; qtot  0.030
     3         HC     20      ASP    HT2      3     0.330000     1.0080   ; qtot  0.360
     4         HC     20      ASP    HT3      4     0.330000     1.0080   ; qtot  0.690
     5        CT1     20      ASP     CA      5     0.210000    12.0110   ; qtot  0.900
     6        HB1     20      ASP     HA      6     0.100000     1.0080   ; qtot  1.000
     7       CT2A     20      ASP     CB      7    -0.280000    12.0110   ; qtot  0.720
     8        HA2     20      ASP    HB1      8     0.090000     1.0080   ; qtot  0.810
     9        HA2     20      ASP    HB2      9     0.090000     1.0080   ; qtot  0.900
    10         CC     20      ASP     CG     10     0.620000    12.0110   ; qtot  1.520
    11         OC     20      ASP    OD1     11    -0.760000    15.9994   ; qtot  0.760
    12         OC     20      ASP    OD2     12    -0.760000    15.9994   ; qtot  0.000
    13          C     20      ASP      C     13     0.510000    12.0110   ; qtot  0.510
    14          O     20      ASP      O     14    -0.510000    15.9994   ; qtot  0.000
    15        NH1     21      ASP      N     15    -0.470000    14.0070   ; qtot -0.470
    16          H     21      ASP     HN     16     0.310000     1.0080   ; qtot -0.160
    17        CT1     21      ASP     CA     17     0.070000    12.0110   ; qtot -0.090
    18        HB1     21      ASP     HA     18     0.090000     1.0080   ; qtot  0.000
    19       CT2A     21      ASP     CB     19    -0.280000    12.0110   ; qtot -0.280
    20        HA2     21      ASP    HB1     20     0.090000     1.0080   ; qtot -0.190
    21        HA2     21      ASP    HB2     21     0.090000     1.0080   ; qtot -0.100
    22         CC     21      ASP     CG     22     0.620000    12.0110   ; qtot  0.520
    23         OC     21      ASP    OD1     23    -0.760000    15.9994   ; qtot -0.240
    24         OC     21      ASP    OD2     24    -0.760000    15.9994   ; qtot -1.000
    25          C     21      ASP      C     25     0.510000    12.0110   ; qtot -0.490
    26          O     21      ASP      O     26    -0.510000    15.9994   ; qtot -1.000
    27        NH1     22      ASP      N     27    -0.470000    14.0070   ; qtot -1.470
    28          H     22      ASP     HN     28     0.310000     1.0080   ; qtot -1.160
    29        CT1     22      ASP     CA     29     0.070000    12.0110   ; qtot -1.090
    30        HB1     22      ASP     HA     30     0.090000     1.0080   ; qtot -1.000
    31       CT2A     22      ASP     CB     31    -0.280000    12.0110   ; qtot -1.280
    32        HA2     22      ASP    HB1     32     0.090000     1.0080   ; qtot -1.190
    33        HA2     22      ASP    HB2     33     0.090000     1.0080   ; qtot -1.100
    34         CC     22      ASP     CG     34     0.620000    12.0110   ; qtot -0.480
    35         OC     22      ASP    OD1     35    -0.760000    15.9994   ; qtot -1.240
    36         OC     22      ASP    OD2     36    -0.760000    15.9994   ; qtot -2.000
    37          C     22      ASP      C     37     0.510000    12.0110   ; qtot -1.490
    38          O     22      ASP      O     38    -0.510000    15.9994   ; qtot -2.000
    39        NH1     23      GLU      N     39    -0.470000    14.0070   ; qtot -2.470
    40          H     23      GLU     HN     40     0.310000     1.0080   ; qtot -2.160
    41        CT1     23      GLU     CA     41     0.070000    12.0110   ; qtot -2.090
    42        HB1     23      GLU     HA     42     0.090000     1.0080   ; qtot -2.000
    43       CT2A     23      GLU     CB     43    -0.180000    12.0110   ; qtot -2.180
    44        HA2     23      GLU    HB1     44     0.090000     1.0080   ; qtot -2.090
    45        HA2     23      GLU    HB2     45     0.090000     1.0080   ; qtot -2.000
    46        CT2     23      GLU     CG     46    -0.280000    12.0110   ; qtot -2.280
    47        HA2     23      GLU    HG1     47     0.090000     1.0080   ; qtot -2.190
    48        HA2     23      GLU    HG2     48     0.090000     1.0080   ; qtot -2.100
    49         CC     23      GLU     CD     49     0.620000    12.0110   ; qtot -1.480
    50         OC     23      GLU    OE1     50    -0.760000    15.9994   ; qtot -2.240
    51         OC     23      GLU    OE2     51    -0.760000    15.9994   ; qtot -3.000
    52          C     23      GLU      C     52     0.510000    12.0110   ; qtot -2.490
    53          O     23      GLU      O     53    -0.510000    15.9994   ; qtot -3.000
    54        NH1     24      GLU      N     54    -0.470000    14.0070   ; qtot -3.470
    55          H     24      GLU     HN     55     0.310000     1.0080   ; qtot -3.160
    56        CT1     24      GLU     CA     56     0.070000    12.0110   ; qtot -3.090
    57        HB1     24      GLU     HA     57     0.090000     1.0080   ; qtot -3.000
    58       CT2A     24      GLU     CB     58    -0.180000    12.0110   ; qtot -3.180
    59        HA2     24      GLU    HB1     59     0.090000     1.0080   ; qtot -3.090
    60        HA2     24      GLU    HB2     60     0.090000     1.0080   ; qtot -3.000
    61        CT2     24      GLU     CG     61    -0.280000    12.0110   ; qtot -3.280
    62        HA2     24      GLU    HG1     62     0.090000     1.0080   ; qtot -3.190
    63        HA2     24      GLU    HG2     63     0.090000     1.0080   ; qtot -3.100
    64         CC     24      GLU     CD     64     0.620000    12.0110   ; qtot -2.480
    65         OC     24      GLU    OE1     65    -0.760000    15.9994   ; qtot -3.240
    66         OC     24      GLU    OE2     66    -0.760000    15.9994   ; qtot -4.000
    67          C     24      GLU      C     67     0.510000    12.0110   ; qtot -3.490
    68          O     24      GLU      O     68    -0.510000    15.9994   ; qtot -4.000
    69        NH1     25      LYS      N     69    -0.470000    14.0070   ; qtot -4.470
    70          H     25      LYS     HN     70     0.310000     1.0080   ; qtot -4.160
    71        CT1     25      LYS     CA     71     0.070000    12.0110   ; qtot -4.090
    72        HB1     25      LYS     HA     72     0.090000     1.0080   ; qtot -4.000
    73        CT2     25      LYS     CB     73    -0.180000    12.0110   ; qtot -4.180
    74        HA2     25      LYS    HB1     74     0.090000     1.0080   ; qtot -4.090
    75        HA2     25      LYS    HB2     75     0.090000     1.0080   ; qtot -4.000
    76        CT2     25      LYS     CG     76    -0.180000    12.0110   ; qtot -4.180
    77        HA2     25      LYS    HG1     77     0.090000     1.0080   ; qtot -4.090
    78        HA2     25      LYS    HG2     78     0.090000     1.0080   ; qtot -4.000
    79        CT2     25      LYS     CD     79    -0.180000    12.0110   ; qtot -4.180
    80        HA2     25      LYS    HD1     80     0.090000     1.0080   ; qtot -4.090
    81        HA2     25      LYS    HD2     81     0.090000     1.0080   ; qtot -4.000
    82        CT2     25      LYS     CE     82     0.210000    12.0110   ; qtot -3.790
    83        HA2     25      LYS    HE1     83     0.050000     1.0080   ; qtot -3.740
    84        HA2     25      LYS    HE2     84     0.050000     1.0080   ; qtot -3.690
    85        NH3     25      LYS     NZ     85    -0.300000    14.0070   ; qtot -3.990
    86         HC     25      LYS    HZ1     86     0.330000     1.0080   ; qtot -3.660
    87         HC     25      LYS    HZ2     87     0.330000     1.0080   ; qtot -3.330
    88         HC     25      LYS    HZ3     88     0.330000     1.0080   ; qtot -3.000
    89          C     25      LYS      C     89     0.510000    12.0110   ; qtot -2.490
    90          O     25      LYS      O     90    -0.510000    15.9994   ; qtot -3.000
    91        NH1     26      PHE      N     91    -0.470000    14.0070   ; qtot -3.470
    92          H     26      PHE     HN     92     0.310000     1.0080   ; qtot -3.160
    93        CT1     26      PHE     CA     93     0.070000    12.0110   ; qtot -3.090
    94        HB1     26      PHE     HA     94     0.090000     1.0080   ; qtot -3.000
    95        CT2     26      PHE     CB     95    -0.180000    12.0110   ; qtot -3.180
    96        HA2     26      PHE    HB1     96     0.090000     1.0080   ; qtot -3.090
    97        HA2     26      PHE    HB2     97     0.090000     1.0080   ; qtot -3.000
    98         CA     26      PHE     CG     98     0.000000    12.0110   ; qtot -3.000
    99         CA     26      PHE    CD1     99    -0.115000    12.0110   ; qtot -3.115
   100         HP     26      PHE    HD1    100     0.115000     1.0080   ; qtot -3.000
   101         CA     26      PHE    CE1    101    -0.115000    12.0110   ; qtot -3.115
   102         HP     26      PHE    HE1    102     0.115000     1.0080   ; qtot -3.000
   103         CA     26      PHE     CZ    103    -0.115000    12.0110   ; qtot -3.115
   104         HP     26      PHE     HZ    104     0.115000     1.0080   ; qtot -3.000
   105         CA     26      PHE    CD2    105    -0.115000    12.0110   ; qtot -3.115
   106         HP     26      PHE    HD2    106     0.115000     1.0080   ; qtot -3.000
   107         CA     26      PHE    CE2    107    -0.115000    12.0110   ; qtot -3.115
   108         HP     26      PHE    HE2    108     0.115000     1.0080   ; qtot -3.000
   109          C     26      PHE      C    109     0.510000    12.0110   ; qtot -2.490
   110          O     26      PHE      O    110    -0.510000    15.9994   ; qtot -3.000
   111        NH1     27      LEU      N    111    -0.470000    14.0070   ; qtot -3.470
   112          H     27      LEU     HN    112     0.310000     1.0080   ; qtot -3.160
   113        CT1     27      LEU     CA    113     0.070000    12.0110   ; qtot -3.090
   114        HB1     27      LEU     HA    114     0.090000     1.0080   ; qtot -3.000
   115        CT2     27      LEU     CB    115    -0.180000    12.0110   ; qtot -3.180
   116        HA2     27      LEU    HB1    116     0.090000     1.0080   ; qtot -3.090
   117        HA2     27      LEU    HB2    117     0.090000     1.0080   ; qtot -3.000
   118        CT1     27      LEU     CG    118    -0.090000    12.0110   ; qtot -3.090
   119        HA1     27      LEU     HG    119     0.090000     1.0080   ; qtot -3.000
   120        CT3     27      LEU    CD1    120    -0.270000    12.0110   ; qtot -3.270
   121        HA3     27      LEU   HD11    121     0.090000     1.0080   ; qtot -3.180
   122        HA3     27      LEU   HD12    122     0.090000     1.0080   ; qtot -3.090
   123        HA3     27      LEU   HD13    123     0.090000     1.0080   ; qtot -3.000
   124        CT3     27      LEU    CD2    124    -0.270000    12.0110   ; qtot -3.270
   125        HA3     27      LEU   HD21    125     0.090000     1.0080   ; qtot -3.180
   126        HA3     27      LEU   HD22    126     0.090000     1.0080   ; qtot -3.090
   127        HA3     27      LEU   HD23    127     0.090000     1.0080   ; qtot -3.000
   128          C     27      LEU      C    128     0.510000    12.0110   ; qtot -2.490
   129          O     27      LEU      O    129    -0.510000    15.9994   ; qtot -3.000
   130        NH1     28      ARG      N    130    -0.470000    14.0070   ; qtot -3.470
   131          H     28      ARG     HN    131     0.310000     1.0080   ; qtot -3.160
   132        CT1     28      ARG     CA    132     0.070000    12.0110   ; qtot -3.090
   133        HB1     28      ARG     HA    133     0.090000     1.0080   ; qtot -3.000
   134        CT2     28      ARG     CB    134    -0.180000    12.0110   ; qtot -3.180
   135        HA2     28      ARG    HB1    135     0.090000     1.0080   ; qtot -3.090
   136        HA2     28      ARG    HB2    136     0.090000     1.0080   ; qtot -3.000
   137        CT2     28      ARG     CG    137    -0.180000    12.0110   ; qtot -3.180
   138        HA2     28      ARG    HG1    138     0.090000     1.0080   ; qtot -3.090
   139        HA2     28      ARG    HG2    139     0.090000     1.0080   ; qtot -3.000
   140        CT2     28      ARG     CD    140     0.200000    12.0110   ; qtot -2.800
   141        HA2     28      ARG    HD1    141     0.090000     1.0080   ; qtot -2.710
   142        HA2     28      ARG    HD2    142     0.090000     1.0080   ; qtot -2.620
   143        NC2     28      ARG     NE    143    -0.700000    14.0070   ; qtot -3.320
   144         HC     28      ARG     HE    144     0.440000     1.0080   ; qtot -2.880
   145          C     28      ARG     CZ    145     0.640000    12.0110   ; qtot -2.240
   146        NC2     28      ARG    NH1    146    -0.800000    14.0070   ; qtot -3.040
   147         HC     28      ARG   HH11    147     0.460000     1.0080   ; qtot -2.580
   148         HC     28      ARG   HH12    148     0.460000     1.0080   ; qtot -2.120
   149        NC2     28      ARG    NH2    149    -0.800000    14.0070   ; qtot -2.920
   150         HC     28      ARG   HH21    150     0.460000     1.0080   ; qtot -2.460
   151         HC     28      ARG   HH22    151     0.460000     1.0080   ; qtot -2.000
   152          C     28      ARG      C    152     0.510000    12.0110   ; qtot -1.490
   153          O     28      ARG      O    153    -0.510000    15.9994   ; qtot -2.000
   154        NH1     29      ARG      N    154    -0.470000    14.0070   ; qtot -2.470
   155          H     29      ARG     HN    155     0.310000     1.0080   ; qtot -2.160
   156        CT1     29      ARG     CA    156     0.070000    12.0110   ; qtot -2.090
   157        HB1     29      ARG     HA    157     0.090000     1.0080   ; qtot -2.000
   158        CT2     29      ARG     CB    158    -0.180000    12.0110   ; qtot -2.180
   159        HA2     29      ARG    HB1    159     0.090000     1.0080   ; qtot -2.090
   160        HA2     29      ARG    HB2    160     0.090000     1.0080   ; qtot -2.000
   161        CT2     29      ARG     CG    161    -0.180000    12.0110   ; qtot -2.180
   162        HA2     29      ARG    HG1    162     0.090000     1.0080   ; qtot -2.090
   163        HA2     29      ARG    HG2    163     0.090000     1.0080   ; qtot -2.000
   164        CT2     29      ARG     CD    164     0.200000    12.0110   ; qtot -1.800
   165        HA2     29      ARG    HD1    165     0.090000     1.0080   ; qtot -1.710
   166        HA2     29      ARG    HD2    166     0.090000     1.0080   ; qtot -1.620
   167        NC2     29      ARG     NE    167    -0.700000    14.0070   ; qtot -2.320
   168         HC     29      ARG     HE    168     0.440000     1.0080   ; qtot -1.880
   169          C     29      ARG     CZ    169     0.640000    12.0110   ; qtot -1.240
   170        NC2     29      ARG    NH1    170    -0.800000    14.0070   ; qtot -2.040
   171         HC     29      ARG   HH11    171     0.460000     1.0080   ; qtot -1.580
   172         HC     29      ARG   HH12    172     0.460000     1.0080   ; qtot -1.120
   173        NC2     29      ARG    NH2    173    -0.800000    14.0070   ; qtot -1.920
   174         HC     29      ARG   HH21    174     0.460000     1.0080   ; qtot -1.460
   175         HC     29      ARG   HH22    175     0.460000     1.0080   ; qtot -1.000
   176          C     29      ARG      C    176     0.510000    12.0110   ; qtot -0.490
   177          O     29      ARG      O    177    -0.510000    15.9994   ; qtot -1.000
   178        NH1     30      ILE      N    178    -0.470000    14.0070   ; qtot -1.470
   179          H     30      ILE     HN    179     0.310000     1.0080   ; qtot -1.160
   180        CT1     30      ILE     CA    180     0.070000    12.0110   ; qtot -1.090
   181        HB1     30      ILE     HA    181     0.090000     1.0080   ; qtot -1.000
   182        CT1     30      ILE     CB    182    -0.090000    12.0110   ; qtot -1.090
   183        HA1     30      ILE     HB    183     0.090000     1.0080   ; qtot -1.000
   184        CT3     30      ILE    CG2    184    -0.270000    12.0110   ; qtot -1.270
   185        HA3     30      ILE   HG21    185     0.090000     1.0080   ; qtot -1.180
   186        HA3     30      ILE   HG22    186     0.090000     1.0080   ; qtot -1.090
   187        HA3     30      ILE   HG23    187     0.090000     1.0080   ; qtot -1.000
   188        CT2     30      ILE    CG1    188    -0.180000    12.0110   ; qtot -1.180
   189        HA2     30      ILE   HG11    189     0.090000     1.0080   ; qtot -1.090
   190        HA2     30      ILE   HG12    190     0.090000     1.0080   ; qtot -1.000
   191        CT3     30      ILE     CD    191    -0.270000    12.0110   ; qtot -1.270
   192        HA3     30      ILE    HD1    192     0.090000     1.0080   ; qtot -1.180
   193        HA3     30      ILE    HD2    193     0.090000     1.0080   ; qtot -1.090
   194        HA3     30      ILE    HD3    194     0.090000     1.0080   ; qtot -1.000
   195          C     30      ILE      C    195     0.510000    12.0110   ; qtot -0.490
   196          O     30      ILE      O    196    -0.510000    15.9994   ; qtot -1.000
   197        NH1     31      GLY      N    197    -0.470000    14.0070   ; qtot -1.470
   198          H     31      GLY     HN    198     0.310000     1.0080   ; qtot -1.160
   199        CT2     31      GLY     CA    199    -0.020000    12.0110   ; qtot -1.180
   200        HB2     31      GLY    HA1    200     0.090000     1.0080   ; qtot -1.090
   201        HB2     31      GLY    HA2    201     0.090000     1.0080   ; qtot -1.000
   202          C     31      GLY      C    202     0.510000    12.0110   ; qtot -0.490
   203          O     31      GLY      O    203    -0.510000    15.9994   ; qtot -1.000
   204        NH1     32      ARG      N    204    -0.470000    14.0070   ; qtot -1.470
   205          H     32      ARG     HN    205     0.310000     1.0080   ; qtot -1.160
   206        CT1     32      ARG     CA    206     0.070000    12.0110   ; qtot -1.090
   207        HB1     32      ARG     HA    207     0.090000     1.0080   ; qtot -1.000
   208        CT2     32      ARG     CB    208    -0.180000    12.0110   ; qtot -1.180
   209        HA2     32      ARG    HB1    209     0.090000     1.0080   ; qtot -1.090
   210        HA2     32      ARG    HB2    210     0.090000     1.0080   ; qtot -1.000
   211        CT2     32      ARG     CG    211    -0.180000    12.0110   ; qtot -1.180
   212        HA2     32      ARG    HG1    212     0.090000     1.0080   ; qtot -1.090
   213        HA2     32      ARG    HG2    213     0.090000     1.0080   ; qtot -1.000
   214        CT2     32      ARG     CD    214     0.200000    12.0110   ; qtot -0.800
   215        HA2     32      ARG    HD1    215     0.090000     1.0080   ; qtot -0.710
   216        HA2     32      ARG    HD2    216     0.090000     1.0080   ; qtot -0.620
   217        NC2     32      ARG     NE    217    -0.700000    14.0070   ; qtot -1.320
   218         HC     32      ARG     HE    218     0.440000     1.0080   ; qtot -0.880
   219          C     32      ARG     CZ    219     0.640000    12.0110   ; qtot -0.240
   220        NC2     32      ARG    NH1    220    -0.800000    14.0070   ; qtot -1.040
   221         HC     32      ARG   HH11    221     0.460000     1.0080   ; qtot -0.580
   222         HC     32      ARG   HH12    222     0.460000     1.0080   ; qtot -0.120
   223        NC2     32      ARG    NH2    223    -0.800000    14.0070   ; qtot -0.920
   224         HC     32      ARG   HH21    224     0.460000     1.0080   ; qtot -0.460
   225         HC     32      ARG   HH22    225     0.460000     1.0080   ; qtot -0.000
   226          C     32      ARG      C    226     0.510000    12.0110   ; qtot  0.510
   227          O     32      ARG      O    227    -0.510000    15.9994   ; qtot -0.000
   228        NH1     33      PHE      N    228    -0.470000    14.0070   ; qtot -0.470
   229          H     33      PHE     HN    229     0.310000     1.0080   ; qtot -0.160
   230        CT1     33      PHE     CA    230     0.070000    12.0110   ; qtot -0.090
   231        HB1     33      PHE     HA    231     0.090000     1.0080   ; qtot -0.000
   232        CT2     33      PHE     CB    232    -0.180000    12.0110   ; qtot -0.180
   233        HA2     33      PHE    HB1    233     0.090000     1.0080   ; qtot -0.090
   234        HA2     33      PHE    HB2    234     0.090000     1.0080   ; qtot -0.000
   235         CA     33      PHE     CG    235     0.000000    12.0110   ; qtot -0.000
   236         CA     33      PHE    CD1    236    -0.115000    12.0110   ; qtot -0.115
   237         HP     33      PHE    HD1    237     0.115000     1.0080   ; qtot -0.000
   238         CA     33      PHE    CE1    238    -0.115000    12.0110   ; qtot -0.115
   239         HP     33      PHE    HE1    239     0.115000     1.0080   ; qtot -0.000
   240         CA     33      PHE     CZ    240    -0.115000    12.0110   ; qtot -0.115
   241         HP     33      PHE     HZ    241     0.115000     1.0080   ; qtot -0.000
   242         CA     33      PHE    CD2    242    -0.115000    12.0110   ; qtot -0.115
   243         HP     33      PHE    HD2    243     0.115000     1.0080   ; qtot -0.000
   244         CA     33      PHE    CE2    244    -0.115000    12.0110   ; qtot -0.115
   245         HP     33      PHE    HE2    245     0.115000     1.0080   ; qtot -0.000
   246          C     33      PHE      C    246     0.510000    12.0110   ; qtot  0.510
   247          O     33      PHE      O    247    -0.510000    15.9994   ; qtot -0.000
   248        NH1     34      GLY      N    248    -0.470000    14.0070   ; qtot -0.470
   249          H     34      GLY     HN    249     0.310000     1.0080   ; qtot -0.160
   250        CT2     34      GLY     CA    250    -0.020000    12.0110   ; qtot -0.180
   251        HB2     34      GLY    HA1    251     0.090000     1.0080   ; qtot -0.090
   252        HB2     34      GLY    HA2    252     0.090000     1.0080   ; qtot -0.000
   253         CC     34      GLY      C    253     0.340000    12.0110   ; qtot  0.340
   254         OC     34      GLY    OT1    254    -0.670000    15.9994   ; qtot -0.330
   255         OC     34      GLY    OT2    255    -0.670000    15.9994   ; qtot -1.000

[ bonds ]
; ai	aj	funct	b0	Kb
    2     1     1
    3     1     1
    4     1     1
    1     5     1
    5     6     1
    7     5     1
   13     5     1
    7     8     1
    7     9     1
   10     7     1
   10    11     1
   12    10     1
   14    13     1
   13    15     1
   15    16     1
   15    17     1
   17    18     1
   19    17     1
   25    17     1
   19    20     1
   19    21     1
   22    19     1
   22    23     1
   24    22     1
   26    25     1
   25    27     1
   27    28     1
   27    29     1
   29    30     1
   31    29     1
   37    29     1
   31    32     1
   31    33     1
   34    31     1
   34    35     1
   36    34     1
   38    37     1
   37    39     1
   39    40     1
   39    41     1
   41    42     1
   43    41     1
   52    41     1
   43    44     1
   43    45     1
   46    43     1
   46    47     1
   46    48     1
   49    46     1
   49    50     1
   51    49     1
   53    52     1
   52    54     1
   54    55     1
   54    56     1
   56    57     1
   58    56     1
   67    56     1
   58    59     1
   58    60     1
   61    58     1
   61    62     1
   61    63     1
   64    61     1
   64    65     1
   66    64     1
   68    67     1
   67    69     1
   69    70     1
   69    71     1
   71    72     1
   73    71     1
   89    71     1
   73    74     1
   73    75     1
   76    73     1
   76    77     1
   76    78     1
   79    76     1
   79    80     1
   79    81     1
   82    79     1
   82    83     1
   82    84     1
   85    82     1
   85    86     1
   85    87     1
   85    88     1
   90    89     1
   89    91     1
   91    92     1
   91    93     1
   93    94     1
   95    93     1
  109    93     1
   95    96     1
   95    97     1
   98    95     1
   99    98     1
  105    98     1
   99   100     1
  101    99     1
  101   102     1
  103   101     1
  103   104     1
  103   107     1
  105   106     1
  107   105     1
  107   108     1
  110   109     1
  109   111     1
  111   112     1
  111   113     1
  113   114     1
  115   113     1
  128   113     1
  115   116     1
  115   117     1
  118   115     1
  118   119     1
  120   118     1
  124   118     1
  120   121     1
  120   122     1
  120   123     1
  124   125     1
  124   126     1
  124   127     1
  129   128     1
  128   130     1
  130   131     1
  130   132     1
  132   133     1
  134   132     1
  152   132     1
  134   135     1
  134   136     1
  137   134     1
  137   138     1
  137   139     1
  140   137     1
  140   141     1
  140   142     1
  143   140     1
  143   144     1
  145   143     1
  145   146     1
  149   145     1
  146   147     1
  146   148     1
  149   150     1
  149   151     1
  153   152     1
  152   154     1
  154   155     1
  154   156     1
  156   157     1
  158   156     1
  176   156     1
  158   159     1
  158   160     1
  161   158     1
  161   162     1
  161   163     1
  164   161     1
  164   165     1
  164   166     1
  167   164     1
  167   168     1
  169   167     1
  169   170     1
  173   169     1
  170   171     1
  170   172     1
  173   174     1
  173   175     1
  177   176     1
  176   178     1
  178   179     1
  178   180     1
  180   181     1
  182   180     1
  195   180     1
  182   183     1
  184   182     1
  188   182     1
  184   185     1
  184   186     1
  184   187     1
  188   189     1
  188   190     1
  191   188     1
  191   192     1
  191   193     1
  191   194     1
  196   195     1
  195   197     1
  197   198     1
  197   199     1
  199   200     1
  199   201     1
  202   199     1
  203   202     1
  202   204     1
  204   205     1
  204   206     1
  206   207     1
  208   206     1
  226   206     1
  208   209     1
  208   210     1
  211   208     1
  211   212     1
  211   213     1
  214   211     1
  214   215     1
  214   216     1
  217   214     1
  217   218     1
  219   217     1
  219   220     1
  223   219     1
  220   221     1
  220   222     1
  223   224     1
  223   225     1
  227   226     1
  226   228     1
  228   229     1
  228   230     1
  230   231     1
  232   230     1
  246   230     1
  232   233     1
  232   234     1
  235   232     1
  236   235     1
  242   235     1
  236   237     1
  238   236     1
  238   239     1
  240   238     1
  240   241     1
  240   244     1
  242   243     1
  244   242     1
  244   245     1
  247   246     1
  246   248     1
  248   249     1
  248   250     1
  250   251     1
  250   252     1
  253   250     1
  253   254     1
  253   255     1

[ pairs ]
; ai	aj	funct	c6	c12 or
; ai	aj	funct	fudgeQQ	q1	q2	c6	c12
    1     8     1
    1     9     1
    1    10     1
    1    14     1
    1    15     1
    2     6     1
    2     7     1
    2    13     1
    3     6     1
    3     7     1
    3    13     1
    4     6     1
    4     7     1
    4    13     1
    5    11     1
    5    12     1
    5    16     1
    5    17     1
    6     8     1
    6     9     1
    6    10     1
    6    14     1
    6    15     1
    7    14     1
    7    15     1
    8    11     1
    8    12     1
    8    13     1
    9    11     1
    9    12     1
    9    13     1
   10    13     1
   13    18     1
   13    19     1
   13    25     1
   14    16     1
   14    17     1
   15    20     1
   15    21     1
   15    22     1
   15    26     1
   15    27     1
   16    18     1
   16    19     1
   16    25     1
   17    23     1
   17    24     1
   17    28     1
   17    29     1
   18    20     1
   18    21     1
   18    22     1
   18    26     1
   18    27     1
   19    26     1
   19    27     1
   20    23     1
   20    24     1
   20    25     1
   21    23     1
   21    24     1
   21    25     1
   22    25     1
   25    30     1
   25    31     1
   25    37     1
   26    28     1
   26    29     1
   27    32     1
   27    33     1
   27    34     1
   27    38     1
   27    39     1
   28    30     1
   28    31     1
   28    37     1
   29    35     1
   29    36     1
   29    40     1
   29    41     1
   30    32     1
   30    33     1
   30    34     1
   30    38     1
   30    39     1
   31    38     1
   31    39     1
   32    35     1
   32    36     1
   32    37     1
   33    35     1
   33    36     1
   33    37     1
   34    37     1
   37    42     1
   37    43     1
   37    52     1
   38    40     1
   38    41     1
   39    44     1
   39    45     1
   39    46     1
   39    53     1
   39    54     1
   40    42     1
   40    43     1
   40    52     1
   41    47     1
   41    48     1
   41    49     1
   41    55     1
   41    56     1
   42    44     1
   42    45     1
   42    46     1
   42    53     1
   42    54     1
   43    50     1
   43    51     1
   43    53     1
   43    54     1
   44    47     1
   44    48     1
   44    49     1
   44    52     1
   45    47     1
   45    48     1
   45    49     1
   45    52     1
   46    52     1
   47    50     1
   47    51     1
   48    50     1
   48    51     1
   52    57     1
   52    58     1
   52    67     1
   53    55     1
   53    56     1
   54    59     1
   54    60     1
   54    61     1
   54    68     1
   54    69     1
   55    57     1
   55    58     1
   55    67     1
   56    62     1
   56    63     1
   56    64     1
   56    70     1
   56    71     1
   57    59     1
   57    60     1
   57    61     1
   57    68     1
   57    69     1
   58    65     1
   58    66     1
   58    68     1
   58    69     1
   59    62     1
   59    63     1
   59    64     1
   59    67     1
   60    62     1
   60    63     1
   60    64     1
   60    67     1
   61    67     1
   62    65     1
   62    66     1
   63    65     1
   63    66     1
   67    72     1
   67    73     1
   67    89     1
   68    70     1
   68    71     1
   69    74     1
   69    75     1
   69    76     1
   69    90     1
   69    91     1
   70    72     1
   70    73     1
   70    89     1
   71    77     1
   71    78     1
   71    79     1
   71    92     1
   71    93     1
   72    74     1
   72    75     1
   72    76     1
   72    90     1
   72    91     1
   73    80     1
   73    81     1
   73    82     1
   73    90     1
   73    91     1
   74    77     1
   74    78     1
   74    79     1
   74    89     1
   75    77     1
   75    78     1
   75    79     1
   75    89     1
   76    83     1
   76    84     1
   76    85     1
   76    89     1
   77    80     1
   77    81     1
   77    82     1
   78    80     1
   78    81     1
   78    82     1
   79    86     1
   79    87     1
   79    88     1
   80    83     1
   80    84     1
   80    85     1
   81    83     1
   81    84     1
   81    85     1
   83    86     1
   83    87     1
   83    88     1
   84    86     1
   84    87     1
   84    88     1
   89    94     1
   89    95     1
   89   109     1
   90    92     1
   90    93     1
   91    96     1
   91    97     1
   91    98     1
   91   110     1
   91   111     1
   92    94     1
   92    95     1
   92   109     1
   93    99     1
   93   105     1
   93   112     1
   93   113     1
   94    96     1
   94    97     1
   94    98     1
   94   110     1
   94   111     1
   95   100     1
   95   101     1
   95   106     1
   95   107     1
   95   110     1
   95   111     1
   96    99     1
   96   105     1
   96   109     1
   97    99     1
   97   105     1
   97   109     1
   98   102     1
   98   103     1
   98   108     1
   98   109     1
   99   104     1
   99   106     1
   99   107     1
  100   102     1
  100   103     1
  100   105     1
  101   105     1
  101   108     1
  102   104     1
  102   107     1
  103   106     1
  104   105     1
  104   108     1
  106   108     1
  109   114     1
  109   115     1
  109   128     1
  110   112     1
  110   113     1
  111   116     1
  111   117     1
  111   118     1
  111   129     1
  111   130     1
  112   114     1
  112   115     1
  112   128     1
  113   119     1
  113   120     1
  113   124     1
  113   131     1
  113   132     1
  114   116     1
  114   117     1
  114   118     1
  114   129     1
  114   130     1
  115   121     1
  115   122     1
  115   123     1
  115   125     1
  115   126     1
  115   127     1
  115   129     1
  115   130     1
  116   119     1
  116   120     1
  116   124     1
  116   128     1
  117   119     1
  117   120     1
  117   124     1
  117   128     1
  118   128     1
  119   121     1
  119   122     1
  119   123     1
  119   125     1
  119   126     1
  119   127     1
  120   125     1
  120   126     1
  120   127     1
  121   124     1
  122   124     1
  123   124     1
  128   133     1
  128   134     1
  128   152     1
  129   131     1
  129   132     1
  130   135     1
  130   136     1
  130   137     1
  130   153     1
  130   154     1
  131   133     1
  131   134     1
  131   152     1
  132   138     1
  132   139     1
  132   140     1
  132   155     1
  132   156     1
  133   135     1
  133   136     1
  133   137     1
  133   153     1
  133   154     1
  134   141     1
  134   142     1
  134   143     1
  134   153     1
  134   154     1
  135   138     1
  135   139     1
  135   140     1
  135   152     1
  136   138     1
  136   139     1
  136   140     1
  136   152     1
  137   144     1
  137   145     1
  137   152     1
  138   141     1
  138   142     1
  138   143     1
  139   141     1
  139   142     1
  139   143     1
  140   146     1
  140   149     1
  141   144     1
  141   145     1
  142   144     1
  142   145     1
  143   147     1
  143   148     1
  143   150     1
  143   151     1
  144   146     1
  144   149     1
  146   150     1
  146   151     1
  147   149     1
  148   149     1
  152   157     1
  152   158     1
  152   176     1
  153   155     1
  153   156     1
  154   159     1
  154   160     1
  154   161     1
  154   177     1
  154   178     1
  155   157     1
  155   158     1
  155   176     1
  156   162     1
  156   163     1
  156   164     1
  156   179     1
  156   180     1
  157   159     1
  157   160     1
  157   161     1
  157   177     1
  157   178     1
  158   165     1
  158   166     1
  158   167     1
  158   177     1
  158   178     1
  159   162     1
  159   163     1
  159   164     1
  159   176     1
  160   162     1
  160   163     1
  160   164     1
  160   176     1
  161   168     1
  161   169     1
  161   176     1
  162   165     1
  162   166     1
  162   167     1
  163   165     1
  163   166     1
  163   167     1
  164   170     1
  164   173     1
  165   168     1
  165   169     1
  166   168     1
  166   169     1
  167   171     1
  167   172     1
  167   174     1
  167   175     1
  168   170     1
  168   173     1
  170   174     1
  170   175     1
  171   173     1
  172   173     1
  176   181     1
  176   182     1
  176   195     1
  177   179     1
  177   180     1
  178   183     1
  178   184     1
  178   188     1
  178   196     1
  178   197     1
  179   181     1
  179   182     1
  179   195     1
  180   185     1
  180   186     1
  180   187     1
  180   189     1
  180   190     1
  180   191     1
  180   198     1
  180   199     1
  181   183     1
  181   184     1
  181   188     1
  181   196     1
  181   197     1
  182   192     1
  182   193     1
  182   194     1
  182   196     1
  182   197     1
  183   185     1
  183   186     1
  183   187     1
  183   189     1
  183   190     1
  183   191     1
  183   195     1
  184   189     1
  184   190     1
  184   191     1
  184   195     1
  185   188     1
  186   188     1
  187   188     1
  188   195     1
  189   192     1
  189   193     1
  189   194     1
  190   192     1
  190   193     1
  190   194     1
  195   200     1
  195   201     1
  195   202     1
  196   198     1
  196   199     1
  197   203     1
  197   204     1
  198   200     1
  198   201     1
  198   202     1
  199   205     1
  199   206     1
  200   203     1
  200   204     1
  201   203     1
  201   204     1
  202   207     1
  202   208     1
  202   226     1
  203   205     1
  203   206     1
  204   209     1
  204   210     1
  204   211     1
  204   227     1
  204   228     1
  205   207     1
  205   208     1
  205   226     1
  206   212     1
  206   213     1
  206   214     1
  206   229     1
  206   230     1
  207   209     1
  207   210     1
  207   211     1
  207   227     1
  207   228     1
  208   215     1
  208   216     1
  208   217     1
  208   227     1
  208   228     1
  209   212     1
  209   213     1
  209   214     1
  209   226     1
  210   212     1
  210   213     1
  210   214     1
  210   226     1
  211   218     1
  211   219     1
  211   226     1
  212   215     1
  212   216     1
  212   217     1
  213   215     1
  213   216     1
  213   217     1
  214   220     1
  214   223     1
  215   218     1
  215   219     1
  216   218     1
  216   219     1
  217   221     1
  217   222     1
  217   224     1
  217   225     1
  218   220     1
  218   223     1
  220   224     1
  220   225     1
  221   223     1
  222   223     1
  226   231     1
  226   232     1
  226   246     1
  227   229     1
  227   230     1
  228   233     1
  228   234     1
  228   235     1
  228   247     1
  228   248     1
  229   231     1
  229   232     1
  229   246     1
  230   236     1
  230   242     1
  230   249     1
  230   250     1
  231   233     1
  231   234     1
  231   235     1
  231   247     1
  231   248     1
  232   237     1
  232   238     1
  232   243     1
  232   244     1
  232   247     1
  232   248     1
  233   236     1
  233   242     1
  233   246     1
  234   236     1
  234   242     1
  234   246     1
  235   239     1
  235   240     1
  235   245     1
  235   246     1
  236   241     1
  236   243     1
  236   244     1
  237   239     1
  237   240     1
  237   242     1
  238   242     1
  238   245     1
  239   241     1
  239   244     1
  240   243     1
  241   242     1
  241   245     1
  243   245     1
  246   251     1
  246   252     1
  246   253     1
  247   249     1
  247   250     1
  248   254     1
  248   255     1
  249   251     1
  249   252     1
  249   253     1
  251   254     1
  251   255     1
  252   254     1
  252   255     1

[ angles ] 
; ai	aj	ak	funct	th0	cth	S0	Kub
    2     1     3     5
    2     1     4     5
    2     1     5     5
    3     1     4     5
    3     1     5     5
    4     1     5     5
    1     5     6     5
    1     5     7     5
    1     5    13     5
    6     5     7     5
    6     5    13     5
    7     5    13     5
    5     7     8     5
    5     7     9     5
    5     7    10     5
    8     7     9     5
    8     7    10     5
    9     7    10     5
    7    10    11     5
    7    10    12     5
   11    10    12     5
    5    13    14     5
    5    13    15     5
   14    13    15     5
   13    15    16     5
   13    15    17     5
   16    15    17     5
   15    17    18     5
   15    17    19     5
   15    17    25     5
   18    17    19     5
   18    17    25     5
   19    17    25     5
   17    19    20     5
   17    19    21     5
   17    19    22     5
   20    19    21     5
   20    19    22     5
   21    19    22     5
   19    22    23     5
   19    22    24     5
   23    22    24     5
   17    25    26     5
   17    25    27     5
   26    25    27     5
   25    27    28     5
   25    27    29     5
   28    27    29     5
   27    29    30     5
   27    29    31     5
   27    29    37     5
   30    29    31     5
   30    29    37     5
   31    29    37     5
   29    31    32     5
   29    31    33     5
   29    31    34     5
   32    31    33     5
   32    31    34     5
   33    31    34     5
   31    34    35     5
   31    34    36     5
   35    34    36     5
   29    37    38     5
   29    37    39     5
   38    37    39     5
   37    39    40     5
   37    39    41     5
   40    39    41     5
   39    41    42     5
   39    41    43     5
   39    41    52     5
   42    41    43     5
   42    41    52     5
   43    41    52     5
   41    43    44     5
   41    43    45     5
   41    43    46     5
   44    43    45     5
   44    43    46     5
   45    43    46     5
   43    46    47     5
   43    46    48     5
   43    46    49     5
   47    46    48     5
   47    46    49     5
   48    46    49     5
   46    49    50     5
   46    49    51     5
   50    49    51     5
   41    52    53     5
   41    52    54     5
   53    52    54     5
   52    54    55     5
   52    54    56     5
   55    54    56     5
   54    56    57     5
   54    56    58     5
   54    56    67     5
   57    56    58     5
   57    56    67     5
   58    56    67     5
   56    58    59     5
   56    58    60     5
   56    58    61     5
   59    58    60     5
   59    58    61     5
   60    58    61     5
   58    61    62     5
   58    61    63     5
   58    61    64     5
   62    61    63     5
   62    61    64     5
   63    61    64     5
   61    64    65     5
   61    64    66     5
   65    64    66     5
   56    67    68     5
   56    67    69     5
   68    67    69     5
   67    69    70     5
   67    69    71     5
   70    69    71     5
   69    71    72     5
   69    71    73     5
   69    71    89     5
   72    71    73     5
   72    71    89     5
   73    71    89     5
   71    73    74     5
   71    73    75     5
   71    73    76     5
   74    73    75     5
   74    73    76     5
   75    73    76     5
   73    76    77     5
   73    76    78     5
   73    76    79     5
   77    76    78     5
   77    76    79     5
   78    76    79     5
   76    79    80     5
   76    79    81     5
   76    79    82     5
   80    79    81     5
   80    79    82     5
   81    79    82     5
   79    82    83     5
   79    82    84     5
   79    82    85     5
   83    82    84     5
   83    82    85     5
   84    82    85     5
   82    85    86     5
   82    85    87     5
   82    85    88     5
   86    85    87     5
   86    85    88     5
   87    85    88     5
   71    89    90     5
   71    89    91     5
   90    89    91     5
   89    91    92     5
   89    91    93     5
   92    91    93     5
   91    93    94     5
   91    93    95     5
   91    93   109     5
   94    93    95     5
   94    93   109     5
   95    93   109     5
   93    95    96     5
   93    95    97     5
   93    95    98     5
   96    95    97     5
   96    95    98     5
   97    95    98     5
   95    98    99     5
   95    98   105     5
   99    98   105     5
   98    99   100     5
   98    99   101     5
  100    99   101     5
   99   101   102     5
   99   101   103     5
  102   101   103     5
  101   103   104     5
  101   103   107     5
  104   103   107     5
   98   105   106     5
   98   105   107     5
  106   105   107     5
  103   107   105     5
  103   107   108     5
  105   107   108     5
   93   109   110     5
   93   109   111     5
  110   109   111     5
  109   111   112     5
  109   111   113     5
  112   111   113     5
  111   113   114     5
  111   113   115     5
  111   113   128     5
  114   113   115     5
  114   113   128     5
  115   113   128     5
  113   115   116     5
  113   115   117     5
  113   115   118     5
  116   115   117     5
  116   115   118     5
  117   115   118     5
  115   118   119     5
  115   118   120     5
  115   118   124     5
  119   118   120     5
  119   118   124     5
  120   118   124     5
  118   120   121     5
  118   120   122     5
  118   120   123     5
  121   120   122     5
  121   120   123     5
  122   120   123     5
  118   124   125     5
  118   124   126     5
  118   124   127     5
  125   124   126     5
  125   124   127     5
  126   124   127     5
  113   128   129     5
  113   128   130     5
  129   128   130     5
  128   130   131     5
  128   130   132     5
  131   130   132     5
  130   132   133     5
  130   132   134     5
  130   132   152     5
  133   132   134     5
  133   132   152     5
  134   132   152     5
  132   134   135     5
  132   134   136     5
  132   134   137     5
  135   134   136     5
  135   134   137     5
  136   134   137     5
  134   137   138     5
  134   137   139     5
  134   137   140     5
  138   137   139     5
  138   137   140     5
  139   137   140     5
  137   140   141     5
  137   140   142     5
  137   140   143     5
  141   140   142     5
  141   140   143     5
  142   140   143     5
  140   143   144     5
  140   143   145     5
  144   143   145     5
  143   145   146     5
  143   145   149     5
  146   145   149     5
  145   146   147     5
  145   146   148     5
  147   146   148     5
  145   149   150     5
  145   149   151     5
  150   149   151     5
  132   152   153     5
  132   152   154     5
  153   152   154     5
  152   154   155     5
  152   154   156     5
  155   154   156     5
  154   156   157     5
  154   156   158     5
  154   156   176     5
  157   156   158     5
  157   156   176     5
  158   156   176     5
  156   158   159     5
  156   158   160     5
  156   158   161     5
  159   158   160     5
  159   158   161     5
  160   158   161     5
  158   161   162     5
  158   161   163     5
  158   161   164     5
  162   161   163     5
  162   161   164     5
  163   161   164     5
  161   164   165     5
  161   164   166     5
  161   164   167     5
  165   164   166     5
  165   164   167     5
  166   164   167     5
  164   167   168     5
  164   167   169     5
  168   167   169     5
  167   169   170     5
  167   169   173     5
  170   169   173     5
  169   170   171     5
  169   170   172     5
  171   170   172     5
  169   173   174     5
  169   173   175     5
  174   173   175     5
  156   176   177     5
  156   176   178     5
  177   176   178     5
  176   178   179     5
  176   178   180     5
  179   178   180     5
  178   180   181     5
  178   180   182     5
  178   180   195     5
  181   180   182     5
  181   180   195     5
  182   180   195     5
  180   182   183     5
  180   182   184     5
  180   182   188     5
  183   182   184     5
  183   182   188     5
  184   182   188     5
  182   184   185     5
  182   184   186     5
  182   184   187     5
  185   184   186     5
  185   184   187     5
  186   184   187     5
  182   188   189     5
  182   188   190     5
  182   188   191     5
  189   188   190     5
  189   188   191     5
  190   188   191     5
  188   191   192     5
  188   191   193     5
  188   191   194     5
  192   191   193     5
  192   191   194     5
  193   191   194     5
  180   195   196     5
  180   195   197     5
  196   195   197     5
  195   197   198     5
  195   197   199     5
  198   197   199     5
  197   199   200     5
  197   199   201     5
  197   199   202     5
  200   199   201     5
  200   199   202     5
  201   199   202     5
  199   202   203     5
  199   202   204     5
  203   202   204     5
  202   204   205     5
  202   204   206     5
  205   204   206     5
  204   206   207     5
  204   206   208     5
  204   206   226     5
  207   206   208     5
  207   206   226     5
  208   206   226     5
  206   208   209     5
  206   208   210     5
  206   208   211     5
  209   208   210     5
  209   208   211     5
  210   208   211     5
  208   211   212     5
  208   211   213     5
  208   211   214     5
  212   211   213     5
  212   211   214     5
  213   211   214     5
  211   214   215     5
  211   214   216     5
  211   214   217     5
  215   214   216     5
  215   214   217     5
  216   214   217     5
  214   217   218     5
  214   217   219     5
  218   217   219     5
  217   219   220     5
  217   219   223     5
  220   219   223     5
  219   220   221     5
  219   220   222     5
  221   220   222     5
  219   223   224     5
  219   223   225     5
  224   223   225     5
  206   226   227     5
  206   226   228     5
  227   226   228     5
  226   228   229     5
  226   228   230     5
  229   228   230     5
  228   230   231     5
  228   230   232     5
  228   230   246     5
  231   230   232     5
  231   230   246     5
  232   230   246     5
  230   232   233     5
  230   232   234     5
  230   232   235     5
  233   232   234     5
  233   232   235     5
  234   232   235     5
  232   235   236     5
  232   235   242     5
  236   235   242     5
  235   236   237     5
  235   236   238     5
  237   236   238     5
  236   238   239     5
  236   238   240     5
  239   238   240     5
  238   240   241     5
  238   240   244     5
  241   240   244     5
  235   242   243     5
  235   242   244     5
  243   242   244     5
  240   244   242     5
  240   244   245     5
  242   244   245     5
  230   246   247     5
  230   246   248     5
  247   246   248     5
  246   248   249     5
  246   248   250     5
  249   248   250     5
  248   250   251     5
  248   250   252     5
  248   250   253     5
  251   250   252     5
  251   250   253     5
  252   250   253     5
  250   253   254     5
  250   253   255     5
  254   253   255     5

[ dihedrals ]
; ai	aj	ak	al	funct	phi0	cp	mult
    2     1     5     6     9
    2     1     5     7     9
    2     1     5    13     9
    3     1     5     6     9
    3     1     5     7     9
    3     1     5    13     9
    4     1     5     6     9
    4     1     5     7     9
    4     1     5    13     9
    1     5     7     8     9
    1     5     7     9     9
    1     5     7    10     9
    6     5     7     8     9
    6     5     7     9     9
    6     5     7    10     9
    1     5    13    14     9
    1     5    13    15     9
    6     5    13    14     9
    6     5    13    15     9
    7     5    13    14     9
    7     5    13    15     9
    8     7     5    13     9
    9     7     5    13     9
   10     7     5    13     9
    5     7    10    11     9
    5     7    10    12     9
    8     7    10    11     9
    8     7    10    12     9
    9     7    10    11     9
    9     7    10    12     9
    5    13    15    16     9
    5    13    15    17     9
   14    13    15    16     9
   14    13    15    17     9
   13    15    17    18     9
   13    15    17    19     9
   13    15    17    25     9
   16    15    17    18     9
   16    15    17    19     9
   16    15    17    25     9
   15    17    19    20     9
   15    17    19    21     9
   15    17    19    22     9
   18    17    19    20     9
   18    17    19    21     9
   18    17    19    22     9
   15    17    25    26     9
   15    17    25    27     9
   18    17    25    26     9
   18    17    25    27     9
   19    17    25    26     9
   19    17    25    27     9
   20    19    17    25     9
   21    19    17    25     9
   22    19    17    25     9
   17    19    22    23     9
   17    19    22    24     9
   20    19    22    23     9
   20    19    22    24     9
   21    19    22    23     9
   21    19    22    24     9
   17    25    27    28     9
   17    25    27    29     9
   26    25    27    28     9
   26    25    27    29     9
   25    27    29    30     9
   25    27    29    31     9
   25    27    29    37     9
   28    27    29    30     9
   28    27    29    31     9
   28    27    29    37     9
   27    29    31    32     9
   27    29    31    33     9
   27    29    31    34     9
   30    29    31    32     9
   30    29    31    33     9
   30    29    31    34     9
   27    29    37    38     9
   27    29    37    39     9
   30    29    37    38     9
   30    29    37    39     9
   31    29    37    38     9
   31    29    37    39     9
   32    31    29    37     9
   33    31    29    37     9
   34    31    29    37     9
   29    31    34    35     9
   29    31    34    36     9
   32    31    34    35     9
   32    31    34    36     9
   33    31    34    35     9
   33    31    34    36     9
   29    37    39    40     9
   29    37    39    41     9
   38    37    39    40     9
   38    37    39    41     9
   37    39    41    42     9
   37    39    41    43     9
   37    39    41    52     9
   40    39    41    42     9
   40    39    41    43     9
   40    39    41    52     9
   39    41    43    44     9
   39    41    43    45     9
   39    41    43    46     9
   42    41    43    44     9
   42    41    43    45     9
   42    41    43    46     9
   39    41    52    53     9
   39    41    52    54     9
   42    41    52    53     9
   42    41    52    54     9
   43    41    52    53     9
   43    41    52    54     9
   44    43    41    52     9
   45    43    41    52     9
   46    43    41    52     9
   41    43    46    47     9
   41    43    46    48     9
   41    43    46    49     9
   44    43    46    47     9
   44    43    46    48     9
   44    43    46    49     9
   45    43    46    47     9
   45    43    46    48     9
   45    43    46    49     9
   43    46    49    50     9
   43    46    49    51     9
   47    46    49    50     9
   47    46    49    51     9
   48    46    49    50     9
   48    46    49    51     9
   41    52    54    55     9
   41    52    54    56     9
   53    52    54    55     9
   53    52    54    56     9
   52    54    56    57     9
   52    54    56    58     9
   52    54    56    67     9
   55    54    56    57     9
   55    54    56    58     9
   55    54    56    67     9
   54    56    58    59     9
   54    56    58    60     9
   54    56    58    61     9
   57    56    58    59     9
   57    56    58    60     9
   57    56    58    61     9
   54    56    67    68     9
   54    56    67    69     9
   57    56    67    68     9
   57    56    67    69     9
   58    56    67    68     9
   58    56    67    69     9
   59    58    56    67     9
   60    58    56    67     9
   61    58    56    67     9
   56    58    61    62     9
   56    58    61    63     9
   56    58    61    64     9
   59    58    61    62     9
   59    58    61    63     9
   59    58    61    64     9
   60    58    61    62     9
   60    58    61    63     9
   60    58    61    64     9
   58    61    64    65     9
   58    61    64    66     9
   62    61    64    65     9
   62    61    64    66     9
   63    61    64    65     9
   63    61    64    66     9
   56    67    69    70     9
   56    67    69    71     9
   68    67    69    70     9
   68    67    69    71     9
   67    69    71    72     9
   67    69    71    73     9
   67    69    71    89     9
   70    69    71    72     9
   70    69    71    73     9
   70    69    71    89     9
   69    71    73    74     9
   69    71    73    75     9
   69    71    73    76     9
   72    71    73    74     9
   72    71    73    75     9
   72    71    73    76     9
   69    71    89    90     9
   69    71    89    91     9
   72    71    89    90     9
   72    71    89    91     9
   73    71    89    90     9
   73    71    89    91     9
   74    73    71    89     9
   75    73    71    89     9
   76    73    71    89     9
   71    73    76    77     9
   71    73    76    78     9
   71    73    76    79     9
   74    73    76    77     9
   74    73    76    78     9
   74    73    76    79     9
   75    73    76    77     9
   75    73    76    78     9
   75    73    76    79     9
   73    76    79    80     9
   73    76    79    81     9
   73    76    79    82     9
   77    76    79    80     9
   77    76    79    81     9
   77    76    79    82     9
   78    76    79    80     9
   78    76    79    81     9
   78    76    79    82     9
   76    79    82    83     9
   76    79    82    84     9
   76    79    82    85     9
   80    79    82    83     9
   80    79    82    84     9
   80    79    82    85     9
   81    79    82    83     9
   81    79    82    84     9
   81    79    82    85     9
   79    82    85    86     9
   79    82    85    87     9
   79    82    85    88     9
   83    82    85    86     9
   83    82    85    87     9
   83    82    85    88     9
   84    82    85    86     9
   84    82    85    87     9
   84    82    85    88     9
   71    89    91    92     9
   71    89    91    93     9
   90    89    91    92     9
   90    89    91    93     9
   89    91    93    94     9
   89    91    93    95     9
   89    91    93   109     9
   92    91    93    94     9
   92    91    93    95     9
   92    91    93   109     9
   91    93    95    96     9
   91    93    95    97     9
   91    93    95    98     9
   94    93    95    96     9
   94    93    95    97     9
   94    93    95    98     9
   91    93   109   110     9
   91    93   109   111     9
   94    93   109   110     9
   94    93   109   111     9
   95    93   109   110     9
   95    93   109   111     9
   96    95    93   109     9
   97    95    93   109     9
   98    95    93   109     9
   93    95    98    99     9
   93    95    98   105     9
   96    95    98    99     9
   96    95    98   105     9
   97    95    98    99     9
   97    95    98   105     9
   95    98    99   100     9
   95    98    99   101     9
   95    98   105   106     9
   95    98   105   107     9
   99    98   105   106     9
   99    98   105   107     9
  100    99    98   105     9
  101    99    98   105     9
   98    99   101   102     9
   98    99   101   103     9
  100    99   101   102     9
  100    99   101   103     9
   99   101   103   104     9
   99   101   103   107     9
  102   101   103   104     9
  102   101   103   107     9
  101   103   107   105     9
  101   103   107   108     9
  104   103   107   105     9
  104   103   107   108     9
   98   105   107   103     9
   98   105   107   108     9
  106   105   107   108     9
  103   107   105   106     9
   93   109   111   112     9
   93   109   111   113     9
  110   109   111   112     9
  110   109   111   113     9
  109   111   113   114     9
  109   111   113   115     9
  109   111   113   128     9
  112   111   113   114     9
  112   111   113   115     9
  112   111   113   128     9
  111   113   115   116     9
  111   113   115   117     9
  111   113   115   118     9
  114   113   115   116     9
  114   113   115   117     9
  114   113   115   118     9
  111   113   128   129     9
  111   113   128   130     9
  114   113   128   129     9
  114   113   128   130     9
  115   113   128   129     9
  115   113   128   130     9
  116   115   113   128     9
  117   115   113   128     9
  118   115   113   128     9
  113   115   118   119     9
  113   115   118   120     9
  113   115   118   124     9
  116   115   118   119     9
  116   115   118   120     9
  116   115   118   124     9
  117   115   118   119     9
  117   115   118   120     9
  117   115   118   124     9
  115   118   120   121     9
  115   118   120   122     9
  115   118   120   123     9
  119   118   120   121     9
  119   118   120   122     9
  119   118   120   123     9
  115   118   124   125     9
  115   118   124   126     9
  115   118   124   127     9
  119   118   124   125     9
  119   118   124   126     9
  119   118   124   127     9
  120   118   124   125     9
  120   118   124   126     9
  120   118   124   127     9
  121   120   118   124     9
  122   120   118   124     9
  123   120   118   124     9
  113   128   130   131     9
  113   128   130   132     9
  129   128   130   131     9
  129   128   130   132     9
  128   130   132   133     9
  128   130   132   134     9
  128   130   132   152     9
  131   130   132   133     9
  131   130   132   134     9
  131   130   132   152     9
  130   132   134   135     9
  130   132   134   136     9
  130   132   134   137     9
  133   132   134   135     9
  133   132   134   136     9
  133   132   134   137     9
  130   132   152   153     9
  130   132   152   154     9
  133   132   152   153     9
  133   132   152   154     9
  134   132   152   153     9
  134   132   152   154     9
  135   134   132   152     9
  136   134   132   152     9
  137   134   132   152     9
  132   134   137   138     9
  132   134   137   139     9
  132   134   137   140     9
  135   134   137   138     9
  135   134   137   139     9
  135   134   137   140     9
  136   134   137   138     9
  136   134   137   139     9
  136   134   137   140     9
  134   137   140   141     9
  134   137   140   142     9
  134   137   140   143     9
  138   137   140   141     9
  138   137   140   142     9
  138   137   140   143     9
  139   137   140   141     9
  139   137   140   142     9
  139   137   140   143     9
  137   140   143   144     9
  137   140   143   145     9
  141   140   143   144     9
  141   140   143   145     9
  142   140   143   144     9
  142   140   143   145     9
  140   143   145   146     9
  140   143   145   149     9
  144   143   145   146     9
  144   143   145   149     9
  143   145   146   147     9
  143   145   146   148     9
  143   145   149   150     9
  143   145   149   151     9
  146   145   149   150     9
  146   145   149   151     9
  147   146   145   149     9
  148   146   145   149     9
  132   152   154   155     9
  132   152   154   156     9
  153   152   154   155     9
  153   152   154   156     9
  152   154   156   157     9
  152   154   156   158     9
  152   154   156   176     9
  155   154   156   157     9
  155   154   156   158     9
  155   154   156   176     9
  154   156   158   159     9
  154   156   158   160     9
  154   156   158   161     9
  157   156   158   159     9
  157   156   158   160     9
  157   156   158   161     9
  154   156   176   177     9
  154   156   176   178     9
  157   156   176   177     9
  157   156   176   178     9
  158   156   176   177     9
  158   156   176   178     9
  159   158   156   176     9
  160   158   156   176     9
  161   158   156   176     9
  156   158   161   162     9
  156   158   161   163     9
  156   158   161   164     9
  159   158   161   162     9
  159   158   161   163     9
  159   158   161   164     9
  160   158   161   162     9
  160   158   161   163     9
  160   158   161   164     9
  158   161   164   165     9
  158   161   164   166     9
  158   161   164   167     9
  162   161   164   165     9
  162   161   164   166     9
  162   161   164   167     9
  163   161   164   165     9
  163   161   164   166     9
  163   161   164   167     9
  161   164   167   168     9
  161   164   167   169     9
  165   164   167   168     9
  165   164   167   169     9
  166   164   167   168     9
  166   164   167   169     9
  164   167   169   170     9
  164   167   169   173     9
  168   167   169   170     9
  168   167   169   173     9
  167   169   170   171     9
  167   169   170   172     9
  167   169   173   174     9
  167   169   173   175     9
  170   169   173   174     9
  170   169   173   175     9
  171   170   169   173     9
  172   170   169   173     9
  156   176   178   179     9
  156   176   178   180     9
  177   176   178   179     9
  177   176   178   180     9
  176   178   180   181     9
  176   178   180   182     9
  176   178   180   195     9
  179   178   180   181     9
  179   178   180   182     9
  179   178   180   195     9
  178   180   182   183     9
  178   180   182   184     9
  178   180   182   188     9
  181   180   182   183     9
  181   180   182   184     9
  181   180   182   188     9
  178   180   195   196     9
  178   180   195   197     9
  181   180   195   196     9
  181   180   195   197     9
  182   180   195   196     9
  182   180   195   197     9
  183   182   180   195     9
  184   182   180   195     9
  188   182   180   195     9
  180   182   184   185     9
  180   182   184   186     9
  180   182   184   187     9
  183   182   184   185     9
  183   182   184   186     9
  183   182   184   187     9
  180   182   188   189     9
  180   182   188   190     9
  180   182   188   191     9
  183   182   188   189     9
  183   182   188   190     9
  183   182   188   191     9
  184   182   188   189     9
  184   182   188   190     9
  184   182   188   191     9
  185   184   182   188     9
  186   184   182   188     9
  187   184   182   188     9
  182   188   191   192     9
  182   188   191   193     9
  182   188   191   194     9
  189   188   191   192     9
  189   188   191   193     9
  189   188   191   194     9
  190   188   191   192     9
  190   188   191   193     9
  190   188   191   194     9
  180   195   197   198     9
  180   195   197   199     9
  196   195   197   198     9
  196   195   197   199     9
  195   197   199   200     9
  195   197   199   201     9
  195   197   199   202     9
  198   197   199   200     9
  198   197   199   201     9
  198   197   199   202     9
  197   199   202   203     9
  197   199   202   204     9
  200   199   202   203     9
  200   199   202   204     9
  201   199   202   203     9
  201   199   202   204     9
  199   202   204   205     9
  199   202   204   206     9
  203   202   204   205     9
  203   202   204   206     9
  202   204   206   207     9
  202   204   206   208     9
  202   204   206   226     9
  205   204   206   207     9
  205   204   206   208     9
  205   204   206   226     9
  204   206   208   209     9
  204   206   208   210     9
  204   206   208   211     9
  207   206   208   209     9
  207   206   208   210     9
  207   206   208   211     9
  204   206   226   227     9
  204   206   226   228     9
  207   206   226   227     9
  207   206   226   228     9
  208   206   226   227     9
  208   206   226   228     9
  209   208   206   226     9
  210   208   206   226     9
  211   208   206   226     9
  206   208   211   212     9
  206   208   211   213     9
  206   208   211   214     9
  209   208   211   212     9
  209   208   211   213     9
  209   208   211   214     9
  210   208   211   212     9
  210   208   211   213     9
  210   208   211   214     9
  208   211   214   215     9
  208   211   214   216     9
  208   211   214   217     9
  212   211   214   215     9
  212   211   214   216     9
  212   211   214   217     9
  213   211   214   215     9
  213   211   214   216     9
  213   211   214   217     9
  211   214   217   218     9
  211   214   217   219     9
  215   214   217   218     9
  215   214   217   219     9
  216   214   217   218     9
  216   214   217   219     9
  214   217   219   220     9
  214   217   219   223     9
  218   217   219   220     9
  218   217   219   223     9
  217   219   220   221     9
  217   219   220   222     9
  217   219   223   224     9
  217   219   223   225     9
  220   219   223   224     9
  220   219   223   225     9
  221   220   219   223     9
  222   220   219   223     9
  206   226   228   229     9
  206   226   228   230     9
  227   226   228   229     9
  227   226   228   230     9
  226   228   230   231     9
  226   228   230   232     9
  226   228   230   246     9
  229   228   230   231     9
  229   228   230   232     9
  229   228   230   246     9
  228   230   232   233     9
  228   230   232   234     9
  228   230   232   235     9
  231   230   232   233     9
  231   230   232   234     9
  231   230   232   235     9
  228   230   246   247     9
  228   230   246   248     9
  231   230   246   247     9
  231   230   246   248     9
  232   230   246   247     9
  232   230   246   248     9
  233   232   230   246     9
  234   232   230   246     9
  235   232   230   246     9
  230   232   235   236     9
  230   232   235   242     9
  233   232   235   236     9
  233   232   235   242     9
  234   232   235   236     9
  234   232   235   242     9
  232   235   236   237     9
  232   235   236   238     9
  232   235   242   243     9
  232   235   242   244     9
  236   235   242   243     9
  236   235   242   244     9
  237   236   235   242     9
  238   236   235   242     9
  235   236   238   239     9
  235   236   238   240     9
  237   236   238   239     9
  237   236   238   240     9
  236   238   240   241     9
  236   238   240   244     9
  239   238   240   241     9
  239   238   240   244     9
  238   240   244   242     9
  238   240   244   245     9
  241   240   244   242     9
  241   240   244   245     9
  235   242   244   240     9
  235   242   244   245     9
  243   242   244   245     9
  240   244   242   243     9
  230   246   248   249     9
  230   246   248   250     9
  247   246   248   249     9
  247   246   248   250     9
  246   248   250   251     9
  246   248   250   252     9
  246   248   250   253     9
  249   248   250   251     9
  249   248   250   252     9
  249   248   250   253     9
  248   250   253   254     9
  248   250   253   255     9
  251   250   253   254     9
  251   250   253   255     9
  252   250   253   254     9
  252   250   253   255     9

[ dihedrals ]
; ai	aj	ak	al	funct	q0	cq
   10     7    12    11     2
   13     5    15    14     2
   15    13    17    16     2
   22    19    24    23     2
   25    17    27    26     2
   27    25    29    28     2
   34    31    36    35     2
   37    29    39    38     2
   39    37    41    40     2
   49    46    51    50     2
   52    41    54    53     2
   54    52    56    55     2
   64    61    66    65     2
   67    56    69    68     2
   69    67    71    70     2
   89    71    91    90     2
   91    89    93    92     2
  109    93   111   110     2
  111   109   113   112     2
  128   113   130   129     2
  130   128   132   131     2
  145   146   149   143     2
  146   147   148   145     2
  149   150   151   145     2
  152   132   154   153     2
  154   152   156   155     2
  169   170   173   167     2
  170   171   172   169     2
  173   174   175   169     2
  176   156   178   177     2
  178   176   180   179     2
  195   180   197   196     2
  197   195   199   198     2
  202   199   204   203     2
  204   202   206   205     2
  219   220   223   217     2
  220   221   222   219     2
  223   224   225   219     2
  226   206   228   227     2
  228   226   230   229     2
  246   230   248   247     2
  248   246   250   249     2
  253   250   255   254     2

[ cmap ] 
; ai	aj	ak	al	am	funct
   13    15    17    25    27     1
   25    27    29    37    39     1
   37    39    41    52    54     1
   52    54    56    67    69     1
   67    69    71    89    91     1
   89    91    93   109   111     1
  109   111   113   128   130     1
  128   130   132   152   154     1
  152   154   156   176   178     1
  176   178   180   195   197     1
  195   197   199   202   204     1
  202   204   206   226   228     1
  226   228   230   246   248     1

#ifdef POSRES
[ position_restraints ]
    1     1    POSRES_FC_BB    POSRES_FC_BB    POSRES_FC_BB   
    5     1    POSRES_FC_BB    POSRES_FC_BB    POSRES_FC_BB   
    7     1    POSRES_FC_SC    POSRES_FC_SC    POSRES_FC_SC   
   10     1    POSRES_FC_SC    POSRES_FC_SC    POSRES_FC_SC   
   11     1    POSRES_FC_SC    POSRES_FC_SC    POSRES_FC_SC   
   12     1    POSRES_FC_SC    POSRES_FC_SC    POSRES_FC_SC   
   13     1    POSRES_FC_BB    POSRES_FC_BB    POSRES_FC_BB   
   14     1    POSRES_FC_BB    POSRES_FC_BB    POSRES_FC_BB   
   15     1    POSRES_FC_BB    POSRES_FC_BB    POSRES_FC_BB   
   17     1    POSRES_FC_BB    POSRES_FC_BB    POSRES_FC_BB   
   19     1    POSRES_FC_SC    POSRES_FC_SC    POSRES_FC_SC   
   22     1    POSRES_FC_SC    POSRES_FC_SC    POSRES_FC_SC   
   23     1    POSRES_FC_SC    POSRES_FC_SC    POSRES_FC_SC   
   24     1    POSRES_FC_SC    POSRES_FC_SC    POSRES_FC_SC   
   25     1    POSRES_FC_BB    POSRES_FC_BB    POSRES_FC_BB   
   26     1    POSRES_FC_BB    POSRES_FC_BB    POSRES_FC_BB   
   27     1    POSRES_FC_BB    POSRES_FC_BB    POSRES_FC_BB   
   29     1    POSRES_FC_BB    POSRES_FC_BB    POSRES_FC_BB   
   31     1    POSRES_FC_SC    POSRES_FC_SC    POSRES_FC_SC   
   34     1    POSRES_FC_SC    POSRES_FC_SC    POSRES_FC_SC   
   35     1    POSRES_FC_SC    POSRES_FC_SC    POSRES_FC_SC   
   36     1    POSRES_FC_SC    POSRES_FC_SC    POSRES_FC_SC   
   37     1    POSRES_FC_BB    POSRES_FC_BB    POSRES_FC_BB   
   38     1    POSRES_FC_BB    POSRES_FC_BB    POSRES_FC_BB   
   39     1    POSRES_FC_BB    POSRES_FC_BB    POSRES_FC_BB   
   41     1    POSRES_FC_BB    POSRES_FC_BB    POSRES_FC_BB   
   43     1    POSRES_FC_SC    POSRES_FC_SC    POSRES_FC_SC   
   46     1    POSRES_FC_SC    POSRES_FC_SC    POSRES_FC_SC   
   49     1    POSRES_FC_SC    POSRES_FC_SC    POSRES_FC_SC   
   50     1    POSRES_FC_SC    POSRES_FC_SC    POSRES_FC_SC   
   51     1    POSRES_FC_SC    POSRES_FC_SC    POSRES_FC_SC   
   52     1    POSRES_FC_BB    POSRES_FC_BB    POSRES_FC_BB   
   53     1    POSRES_FC_BB    POSRES_FC_BB    POSRES_FC_BB   
   54     1    POSRES_FC_BB    POSRES_FC_BB    POSRES_FC_BB   
   56     1    POSRES_FC_BB    POSRES_FC_BB    POSRES_FC_BB   
   58     1    POSRES_FC_SC    POSRES_FC_SC    POSRES_FC_SC   
   61     1    POSRES_FC_SC    POSRES_FC_SC    POSRES_FC_SC   
   64     1    POSRES_FC_SC    POSRES_FC_SC    POSRES_FC_SC   
   65     1    POSRES_FC_SC    POSRES_FC_SC    POSRES_FC_SC   
   66     1    POSRES_FC_SC    POSRES_FC_SC    POSRES_FC_SC   
   67     1    POSRES_FC_BB    POSRES_FC_BB    POSRES_FC_BB   
   68     1    POSRES_FC_BB    POSRES_FC_BB    POSRES_FC_BB   
   69     1    POSRES_FC_BB    POSRES_FC_BB    POSRES_FC_BB   
   71     1    POSRES_FC_BB    POSRES_FC_BB    POSRES_FC_BB   
   73     1    POSRES_FC_SC    POSRES_FC_SC    POSRES_FC_SC   
   76     1    POSRES_FC_SC    POSRES_FC_SC    POSRES_FC_SC   
   79     1    POSRES_FC_SC    POSRES_FC_SC    POSRES_FC_SC   
   82     1    POSRES_FC_SC    POSRES_FC_SC    POSRES_FC_SC   
   85     1    POSRES_FC_SC    POSRES_FC_SC    POSRES_FC_SC   
   89     1    POSRES_FC_BB    POSRES_FC_BB    POSRES_FC_BB   
   90     1    POSRES_FC_BB    POSRES_FC_BB    POSRES_FC_BB   
   91     1    POSRES_FC_BB    POSRES_FC_BB    POSRES_FC_BB   
   93     1    POSRES_FC_BB    POSRES_FC_BB    POSRES_FC_BB   
   95     1    POSRES_FC_SC    POSRES_FC_SC    POSRES_FC_SC   
   98     1    POSRES_FC_SC    POSRES_FC_SC    POSRES_FC_SC   
   99     1    POSRES_FC_SC    POSRES_FC_SC    POSRES_FC_SC   
  101     1    POSRES_FC_SC    POSRES_FC_SC    POSRES_FC_SC   
  103     1    POSRES_FC_SC    POSRES_FC_SC    POSRES_FC_SC   
  105     1    POSRES_FC_SC    POSRES_FC_SC    POSRES_FC_SC   
  107     1    POSRES_FC_SC    POSRES_FC_SC    POSRES_FC_SC   
  109     1    POSRES_FC_BB    POSRES_FC_BB    POSRES_FC_BB   
  110     1    POSRES_FC_BB    POSRES_FC_BB    POSRES_FC_BB   
  111     1    POSRES_FC_BB    POSRES_FC_BB    POSRES_FC_BB   
  113     1    POSRES_FC_BB    POSRES_FC_BB    POSRES_FC_BB   
  115     1    POSRES_FC_SC    POSRES_FC_SC    POSRES_FC_SC   
  118     1    POSRES_FC_SC    POSRES_FC_SC    POSRES_FC_SC   
  120     1    POSRES_FC_SC    POSRES_FC_SC    POSRES_FC_SC   
  124     1    POSRES_FC_SC    POSRES_FC_SC    POSRES_FC_SC   
  128     1    POSRES_FC_BB    POSRES_FC_BB    POSRES_FC_BB   
  129     1    POSRES_FC_BB    POSRES_FC_BB    POSRES_FC_BB   
  130     1    POSRES_FC_BB    POSRES_FC_BB    POSRES_FC_BB   
  132     1    POSRES_FC_BB    POSRES_FC_BB    POSRES_FC_BB   
  134     1    POSRES_FC_SC    POSRES_FC_SC    POSRES_FC_SC   
  137     1    POSRES_FC_SC    POSRES_FC_SC    POSRES_FC_SC   
  140     1    POSRES_FC_SC    POSRES_FC_SC    POSRES_FC_SC   
  143     1    POSRES_FC_SC    POSRES_FC_SC    POSRES_FC_SC   
  145     1    POSRES_FC_SC    POSRES_FC_SC    POSRES_FC_SC   
  146     1    POSRES_FC_SC    POSRES_FC_SC    POSRES_FC_SC   
  149     1    POSRES_FC_SC    POSRES_FC_SC    POSRES_FC_SC   
  152     1    POSRES_FC_BB    POSRES_FC_BB    POSRES_FC_BB   
  153     1    POSRES_FC_BB    POSRES_FC_BB    POSRES_FC_BB   
  154     1    POSRES_FC_BB    POSRES_FC_BB    POSRES_FC_BB   
  156     1    POSRES_FC_BB    POSRES_FC_BB    POSRES_FC_BB   
  158     1    POSRES_FC_SC    POSRES_FC_SC    POSRES_FC_SC   
  161     1    POSRES_FC_SC    POSRES_FC_SC    POSRES_FC_SC   
  164     1    POSRES_FC_SC    POSRES_FC_SC    POSRES_FC_SC   
  167     1    POSRES_FC_SC    POSRES_FC_SC    POSRES_FC_SC   
  169     1    POSRES_FC_SC    POSRES_FC_SC    POSRES_FC_SC   
  170     1    POSRES_FC_SC    POSRES_FC_SC    POSRES_FC_SC   
  173     1    POSRES_FC_SC    POSRES_FC_SC    POSRES_FC_SC   
  176     1    POSRES_FC_BB    POSRES_FC_BB    POSRES_FC_BB   
  177     1    POSRES_FC_BB    POSRES_FC_BB    POSRES_FC_BB   
  178     1    POSRES_FC_BB    POSRES_FC_BB    POSRES_FC_BB   
  180     1    POSRES_FC_BB    POSRES_FC_BB    POSRES_FC_BB   
  182     1    POSRES_FC_SC    POSRES_FC_SC    POSRES_FC_SC   
  184     1    POSRES_FC_SC    POSRES_FC_SC    POSRES_FC_SC   
  188     1    POSRES_FC_SC    POSRES_FC_SC    POSRES_FC_SC   
  191     1    POSRES_FC_SC    POSRES_FC_SC    POSRES_FC_SC   
  195     1    POSRES_FC_BB    POSRES_FC_BB    POSRES_FC_BB   
  196     1    POSRES_FC_BB    POSRES_FC_BB    POSRES_FC_BB   
  197     1    POSRES_FC_BB    POSRES_FC_BB    POSRES_FC_BB   
  199     1    POSRES_FC_BB    POSRES_FC_BB    POSRES_FC_BB   
  202     1    POSRES_FC_BB    POSRES_FC_BB    POSRES_FC_BB   
  203     1    POSRES_FC_BB    POSRES_FC_BB    POSRES_FC_BB   
  204     1    POSRES_FC_BB    POSRES_FC_BB    POSRES_FC_BB   
  206     1    POSRES_FC_BB    POSRES_FC_BB    POSRES_FC_BB   
  208     1    POSRES_FC_SC    POSRES_FC_SC    POSRES_FC_SC   
  211     1    POSRES_FC_SC    POSRES_FC_SC    POSRES_FC_SC   
  214     1    POSRES_FC_SC    POSRES_FC_SC    POSRES_FC_SC   
  217     1    POSRES_FC_SC    POSRES_FC_SC    POSRES_FC_SC   
  219     1    POSRES_FC_SC    POSRES_FC_SC    POSRES_FC_SC   
  220     1    POSRES_FC_SC    POSRES_FC_SC    POSRES_FC_SC   
  223     1    POSRES_FC_SC    POSRES_FC_SC    POSRES_FC_SC   
  226     1    POSRES_FC_BB    POSRES_FC_BB    POSRES_FC_BB   
  227     1    POSRES_FC_BB    POSRES_FC_BB    POSRES_FC_BB   
  228     1    POSRES_FC_BB    POSRES_FC_BB    POSRES_FC_BB   
  230     1    POSRES_FC_BB    POSRES_FC_BB    POSRES_FC_BB   
  232     1    POSRES_FC_SC    POSRES_FC_SC    POSRES_FC_SC   
  235     1    POSRES_FC_SC    POSRES_FC_SC    POSRES_FC_SC   
  236     1    POSRES_FC_SC    POSRES_FC_SC    POSRES_FC_SC   
  238     1    POSRES_FC_SC    POSRES_FC_SC    POSRES_FC_SC   
  240     1    POSRES_FC_SC    POSRES_FC_SC    POSRES_FC_SC   
  242     1    POSRES_FC_SC    POSRES_FC_SC    POSRES_FC_SC   
  244     1    POSRES_FC_SC    POSRES_FC_SC    POSRES_FC_SC   
  246     1    POSRES_FC_BB    POSRES_FC_BB    POSRES_FC_BB   
  247     1    POSRES_FC_BB    POSRES_FC_BB    POSRES_FC_BB   
  248     1    POSRES_FC_BB    POSRES_FC_BB    POSRES_FC_BB   
  250     1    POSRES_FC_BB    POSRES_FC_BB    POSRES_FC_BB   
  253     1    POSRES_FC_BB    POSRES_FC_BB    POSRES_FC_BB   
  254     1    POSRES_FC_SC    POSRES_FC_SC    POSRES_FC_SC   
  255     1    POSRES_FC_SC    POSRES_FC_SC    POSRES_FC_SC   
#endif
