[ Protein ]
    1     2     3     4     5     6     7     8     9    10    11    12    13    14    15
   16    17    18    19    20    21    22    23    24    25    26    27    28    29    30
   31    32    33    34    35    36    37    38    39    40    41    42    43    44    45
   46    47    48    49    50    51    52    53    54    55    56    57    58    59    60
   61    62    63    64    65    66    67    68    69    70    71    72    73    74    75
   76    77    78    79    80    81    82    83    84    85    86    87    88    89    90
   91    92    93    94    95    96    97    98    99   100   101   102   103   104   105
  106   107   108   109   110   111   112   113   114   115   116   117   118   119   120
  121   122   123   124   125   126   127   128   129   130   131   132   133   134   135
  136   137   138   139   140   141   142   143   144   145   146   147   148   149   150
  151   152   153   154   155   156   157   158   159   160   161   162   163   164   165
  166   167   168   169   170   171   172   173   174   175   176   177   178   179   180
  181   182   183   184   185   186   187   188   189   190   191   192   193   194   195
  196   197   198   199   200   201   202   203   204   205   206   207   208   209   210
  211   212   213   214   215   216   217   218   219   220   221   222   223   224   225
  226   227   228   229   230   231   232   233   234   235   236   237   238   239   240
  241   242   243   244   245   246   247   248   249   250   251   252   253   254   255
[ donors_hydrogens_Protein ]
    1    2    3    4
   15   16
   27   28
   39   40
   54   55
   69   70
   85   86   87   88
   91   92
  111  112
  130  131
  143  144
  146  147  148
  149  150  151
  154  155
  167  168
  170  171  172
  173  174  175
  178  179
  197  198
  204  205
  217  218
  220  221  222
  223  224  225
  228  229
  248  249
[ acceptors_Protein ]
    1    11    12    14    15    23    24    26    27    35    36    38    39    50    51
   53    54    65    66    68    69    85    90    91   110   111   129   130   143   146
  149   153   154   167   170   173   177   178   196   197   203   204   217   220   223
  227   228   247   248   254   255
[ hbonds_Protein ]
      1      2     11
      1      3     11
      1      4     11
      1      2     12
      1      3     12
      1      4     12
      1      2     35
      1      3     35
      1      4     35
      1      2     36
      1      3     36
      1      4     36
      1      2     50
      1      3     50
      1      4     50
      1      2     51
      1      3     51
      1      4     51
      1      2     65
      1      3     65
      1      4     65
      1      2     66
      1      3     66
      1      4     66
     15     16     11
     15     16     12
     15     16     23
     15     16     24
     15     16     65
     15     16     66
     27     28     12
     27     28     23
     27     28     24
     27     28     35
     27     28     36
     39     40     14
     39     40     23
     39     40     24
     39     40     35
     39     40     36
     39     40     50
     39     40     51
     54     55     14
     54     55     23
     54     55     24
     54     55     26
     69     70     26
     69     70     38
     85     86     11
     85     87     11
     85     88     11
     85     86     12
     85     87     12
     85     88     12
     85     86     23
     85     87     23
     85     88     23
     85     86     24
     85     87     24
     85     88     24
     85     86     26
     85     87     26
     85     88     26
     85     86     35
     85     87     35
     85     88     35
     85     86     36
     85     87     36
     85     88     36
     91     92     38
     91     92     53
    111    112     53
    111    112     68
    130    131     68
    130    131     90
    143    144     65
    143    144     66
    143    144    247
    143    144    254
    143    144    255
    146    148     11
    146    148     12
    146    148     23
    146    148     24
    146    148     65
    146    148     66
    146    147     68
    146    147    153
    146    147    247
    146    148    255
    149    151     11
    149    151     12
    149    151     23
    149    151     24
    149    150     65
    149    151     65
    149    150     66
    149    151     66
    149    150    254
    149    151    254
    149    150    255
    149    151    255
    154    155     90
    154    155    110
    167    168    110
    167    168    254
    167    168    255
    170    171    177
    170    172    247
    170    172    254
    170    171    255
    170    172    255
    173    174    254
    173    175    254
    173    174    255
    173    175    255
    178    179    110
    178    179    129
    197    198    129
    197    198    153
    204    205    129
    204    205    153
    204    205    177
    217    218    177
    217    218    227
    217    218    254
    217    218    255
    220    221    153
    220    221    196
    220    221    203
    220    221    227
    220    221    247
    220    222    254
    220    222    255
    223    224    196
    223    224    203
    223    224    254
    223    225    254
    223    224    255
    223    225    255
    228    229    153
    228    229    177
    228    229    196
    228    229    203
    248    249    153
    248    249    177
    248    249    196
    248    249    203
